<?xml version="1.0"?>

<!-- generated on Fri Mar 15 17:00:18 2013 by SUMO sumo Version 0.16.0
<?xml version="1.0" encoding="UTF-8"?>

<configuration xmlns:xsi="http://www.w3.org/2001/XMLSchema-instance" xsi:noNamespaceSchemaLocation="http://sumo.sf.net/xsd/sumoConfiguration.xsd">

    <input>
        <net-file value="grid2.net.xml"/>
        <route-files value="grid2.rou.xml"/>
    </input>

    <output>
        <summary-output value="summary.out.xml"/>
        <tripinfo-output value="tripinfo.out.xml"/>
    </output>

    <time>
        <begin value="0"/>
        <end value="2400"/>
    </time>

    <processing>
        <time-to-teleport value="100"/>
    </processing>

</configuration>
-->

<tripinfos>
    <tripinfo id="t10" depart="10.00" departLane="2/2to1/2_0" departPos="5.10" departSpeed="0.00" departDelay="0.00" arrival="45.00" arrivalLane="1/2to1/1_0" arrivalPos="192.62" arrivalSpeed="13.84" duration="35.00" routeLength="379.52" waitSteps="0" rerouteNo="0" devices="tripinfo_t10" vType="DEFAULT_VEHTYPE" vaporized=""/>
    <tripinfo id="t2" depart="2.00" departLane="0/2to1/2_0" departPos="5.10" departSpeed="0.00" departDelay="0.00" arrival="56.00" arrivalLane="1/1to2/1_0" arrivalPos="194.31" arrivalSpeed="10.54" duration="54.00" routeLength="571.71" waitSteps="0" rerouteNo="0" devices="tripinfo_t2" vType="DEFAULT_VEHTYPE" vaporized=""/>
    <tripinfo id="t42" depart="42.00" departLane="0/1to0/0_0" departPos="5.10" departSpeed="0.00" departDelay="0.00" arrival="59.00" arrivalLane="0/1to0/0_0" arrivalPos="198.72" arrivalSpeed="13.59" duration="17.00" routeLength="193.62" waitSteps="0" rerouteNo="0" devices="tripinfo_t42" vType="DEFAULT_VEHTYPE" vaporized=""/>
    <tripinfo id="t12" depart="12.00" departLane="2/1to1/1_0" departPos="5.10" departSpeed="0.00" departDelay="0.00" arrival="63.00" arrivalLane="1/1to0/1_0" arrivalPos="196.46" arrivalSpeed="13.84" duration="51.00" routeLength="381.86" waitSteps="12" rerouteNo="0" devices="tripinfo_t12" vType="DEFAULT_VEHTYPE" vaporized=""/>
    <tripinfo id="t4" depart="4.00" departLane="2/0to2/1_0" departPos="5.10" departSpeed="0.00" departDelay="0.00" arrival="80.00" arrivalLane="0/1to0/0_0" arrivalPos="197.83" arrivalSpeed="13.57" duration="76.00" routeLength="765.73" waitSteps="2" rerouteNo="0" devices="tripinfo_t4" vType="DEFAULT_VEHTYPE" vaporized=""/>
    <tripinfo id="t3" depart="3.00" departLane="2/2to1/2_0" departPos="5.10" departSpeed="0.00" departDelay="0.00" arrival="89.00" arrivalLane="0/2to0/1_0" arrivalPos="199.66" arrivalSpeed="7.88" duration="86.00" routeLength="578.56" waitSteps="24" rerouteNo="0" devices="tripinfo_t3" vType="DEFAULT_VEHTYPE" vaporized=""/>
    <tripinfo id="t11" depart="11.00" departLane="1/2to2/2_0" departPos="5.10" departSpeed="0.00" departDelay="0.00" arrival="91.00" arrivalLane="1/2to0/2_0" arrivalPos="198.06" arrivalSpeed="12.90" duration="80.00" routeLength="957.96" waitSteps="0" rerouteNo="0" devices="tripinfo_t11" vType="DEFAULT_VEHTYPE" vaporized=""/>
    <tripinfo id="t16" depart="16.00" departLane="0/1to1/1_0" departPos="5.10" departSpeed="0.00" departDelay="0.00" arrival="93.00" arrivalLane="2/0to2/1_0" arrivalPos="203.59" arrivalSpeed="12.73" duration="77.00" routeLength="771.49" waitSteps="7" rerouteNo="0" devices="tripinfo_t16" vType="DEFAULT_VEHTYPE" vaporized=""/>
    <tripinfo id="t5" depart="5.00" departLane="1/0to1/1_0" departPos="5.10" departSpeed="0.00" departDelay="0.00" arrival="103.00" arrivalLane="0/0to1/0_0" arrivalPos="195.32" arrivalSpeed="3.97" duration="98.00" routeLength="763.22" waitSteps="17" rerouteNo="0" devices="tripinfo_t5" vType="DEFAULT_VEHTYPE" vaporized=""/>
    <tripinfo id="t36" depart="36.00" departLane="2/1to2/0_0" departPos="5.10" departSpeed="0.00" departDelay="0.00" arrival="106.00" arrivalLane="1/0to0/0_0" arrivalPos="192.31" arrivalSpeed="13.58" duration="70.00" routeLength="571.21" waitSteps="14" rerouteNo="0" devices="tripinfo_t36" vType="DEFAULT_VEHTYPE" vaporized=""/>
    <tripinfo id="t1" depart="1.00" departLane="1/1to2/1_0" departPos="5.10" departSpeed="0.00" departDelay="0.00" arrival="108.00" arrivalLane="1/0to0/0_0" arrivalPos="195.18" arrivalSpeed="13.68" duration="107.00" routeLength="764.58" waitSteps="29" rerouteNo="0" devices="tripinfo_t1" vType="DEFAULT_VEHTYPE" vaporized=""/>
    <tripinfo id="t34" depart="34.00" departLane="2/0to1/0_0" departPos="5.10" departSpeed="0.00" departDelay="0.00" arrival="112.00" arrivalLane="0/0to0/1_0" arrivalPos="193.27" arrivalSpeed="13.52" duration="78.00" routeLength="572.17" waitSteps="24" rerouteNo="0" devices="tripinfo_t34" vType="DEFAULT_VEHTYPE" vaporized=""/>
    <tripinfo id="t118" depart="118.00" departLane="1/1to0/1_0" departPos="5.10" departSpeed="0.00" departDelay="0.00" arrival="135.00" arrivalLane="1/1to0/1_0" arrivalPos="195.56" arrivalSpeed="12.61" duration="17.00" routeLength="190.46" waitSteps="0" rerouteNo="0" devices="tripinfo_t118" vType="DEFAULT_VEHTYPE" vaporized=""/>
    <tripinfo id="t30" depart="32.00" departLane="1/2to1/1_0" departPos="5.10" departSpeed="0.00" departDelay="2.00" arrival="144.00" arrivalLane="1/0to0/0_0" arrivalPos="198.47" arrivalSpeed="12.70" duration="112.00" routeLength="574.37" waitSteps="47" rerouteNo="0" devices="tripinfo_t30" vType="DEFAULT_VEHTYPE" vaporized=""/>
    <tripinfo id="t95" depart="97.00" departLane="1/1to2/1_0" departPos="5.10" departSpeed="0.00" departDelay="2.00" arrival="145.00" arrivalLane="2/1to2/2_0" arrivalPos="199.71" arrivalSpeed="12.69" duration="48.00" routeLength="385.11" waitSteps="8" rerouteNo="0" devices="tripinfo_t95" vType="DEFAULT_VEHTYPE" vaporized=""/>
    <tripinfo id="t7" depart="7.00" departLane="0/0to1/0_0" departPos="5.10" departSpeed="0.00" departDelay="0.00" arrival="146.00" arrivalLane="1/2to2/2_0" arrivalPos="203.41" arrivalSpeed="13.14" duration="139.00" routeLength="771.31" waitSteps="59" rerouteNo="0" devices="tripinfo_t7" vType="DEFAULT_VEHTYPE" vaporized=""/>
    <tripinfo id="t27" depart="27.00" departLane="0/2to1/2_0" departPos="5.10" departSpeed="0.00" departDelay="0.00" arrival="147.00" arrivalLane="2/1to2/2_0" arrivalPos="192.83" arrivalSpeed="12.60" duration="120.00" routeLength="760.73" waitSteps="29" rerouteNo="0" devices="tripinfo_t27" vType="DEFAULT_VEHTYPE" vaporized=""/>
    <tripinfo id="t32" depart="35.00" departLane="1/2to1/1_0" departPos="5.10" departSpeed="0.00" departDelay="3.00" arrival="149.00" arrivalLane="1/0to2/0_0" arrivalPos="203.15" arrivalSpeed="13.48" duration="114.00" routeLength="579.05" waitSteps="46" rerouteNo="0" devices="tripinfo_t32" vType="DEFAULT_VEHTYPE" vaporized=""/>
    <tripinfo id="t22" depart="22.00" departLane="0/2to1/2_0" departPos="5.10" departSpeed="0.00" departDelay="0.00" arrival="149.00" arrivalLane="1/0to0/0_0" arrivalPos="200.57" arrivalSpeed="13.21" duration="127.00" routeLength="768.47" waitSteps="36" rerouteNo="0" devices="tripinfo_t22" vType="DEFAULT_VEHTYPE" vaporized=""/>
    <tripinfo id="t67" depart="67.00" departLane="1/2to1/1_0" departPos="5.10" departSpeed="0.00" departDelay="0.00" arrival="151.00" arrivalLane="1/0to2/0_0" arrivalPos="199.72" arrivalSpeed="13.64" duration="84.00" routeLength="575.62" waitSteps="14" rerouteNo="0" devices="tripinfo_t67" vType="DEFAULT_VEHTYPE" vaporized=""/>
    <tripinfo id="t8" depart="10.00" departLane="0/0to1/0_0" departPos="5.10" departSpeed="0.00" departDelay="2.00" arrival="153.00" arrivalLane="0/1to0/0_0" arrivalPos="201.99" arrivalSpeed="12.66" duration="143.00" routeLength="769.89" waitSteps="62" rerouteNo="0" devices="tripinfo_t8" vType="DEFAULT_VEHTYPE" vaporized=""/>
    <tripinfo id="t48" depart="49.00" departLane="0/1to0/2_0" departPos="5.10" departSpeed="0.00" departDelay="1.00" arrival="156.00" arrivalLane="2/1to2/2_0" arrivalPos="201.19" arrivalSpeed="13.80" duration="107.00" routeLength="961.09" waitSteps="2" rerouteNo="0" devices="tripinfo_t48" vType="DEFAULT_VEHTYPE" vaporized=""/>
    <tripinfo id="t60" depart="76.00" departLane="0/2to1/2_0" departPos="5.10" departSpeed="0.00" departDelay="16.00" arrival="157.00" arrivalLane="1/0to0/0_0" arrivalPos="200.26" arrivalSpeed="13.19" duration="81.00" routeLength="768.16" waitSteps="0" rerouteNo="0" devices="tripinfo_t60" vType="DEFAULT_VEHTYPE" vaporized=""/>
    <tripinfo id="t142" depart="143.00" departLane="1/0to0/0_0" departPos="5.10" departSpeed="0.00" departDelay="1.00" arrival="160.00" arrivalLane="1/0to0/0_0" arrivalPos="198.49" arrivalSpeed="12.61" duration="17.00" routeLength="193.39" waitSteps="0" rerouteNo="0" devices="tripinfo_t142" vType="DEFAULT_VEHTYPE" vaporized=""/>
    <tripinfo id="t18" depart="19.00" departLane="1/2to2/2_0" departPos="5.10" departSpeed="0.00" departDelay="1.00" arrival="163.00" arrivalLane="0/2to1/2_0" arrivalPos="191.97" arrivalSpeed="5.85" duration="144.00" routeLength="1143.87" waitSteps="39" rerouteNo="0" devices="tripinfo_t18" vType="DEFAULT_VEHTYPE" vaporized=""/>
    <tripinfo id="t55" depart="55.00" departLane="0/1to1/1_0" departPos="5.10" departSpeed="0.00" departDelay="0.00" arrival="166.00" arrivalLane="2/0to2/1_0" arrivalPos="195.31" arrivalSpeed="4.51" duration="111.00" routeLength="763.21" waitSteps="33" rerouteNo="0" devices="tripinfo_t55" vType="DEFAULT_VEHTYPE" vaporized=""/>
    <tripinfo id="t40" depart="40.00" departLane="0/1to0/2_0" departPos="5.10" departSpeed="0.00" departDelay="0.00" arrival="167.00" arrivalLane="0/0to0/1_0" arrivalPos="192.20" arrivalSpeed="13.42" duration="127.00" routeLength="1144.10" waitSteps="12" rerouteNo="0" devices="tripinfo_t40" vType="DEFAULT_VEHTYPE" vaporized=""/>
    <tripinfo id="t17" depart="17.00" departLane="1/1to0/1_0" departPos="5.10" departSpeed="0.00" departDelay="0.00" arrival="169.00" arrivalLane="0/0to0/1_0" arrivalPos="194.17" arrivalSpeed="13.23" duration="152.00" routeLength="1336.57" waitSteps="8" rerouteNo="0" devices="tripinfo_t17" vType="DEFAULT_VEHTYPE" vaporized=""/>
    <tripinfo id="t151" depart="152.00" departLane="1/2to0/2_0" departPos="5.10" departSpeed="0.00" departDelay="1.00" arrival="169.00" arrivalLane="1/2to0/2_0" arrivalPos="194.04" arrivalSpeed="13.38" duration="17.00" routeLength="188.94" waitSteps="0" rerouteNo="0" devices="tripinfo_t151" vType="DEFAULT_VEHTYPE" vaporized=""/>
    <tripinfo id="t51" depart="52.00" departLane="0/1to0/2_0" departPos="5.10" departSpeed="0.00" departDelay="1.00" arrival="170.00" arrivalLane="2/1to1/1_0" arrivalPos="198.12" arrivalSpeed="9.33" duration="118.00" routeLength="961.02" waitSteps="9" rerouteNo="0" devices="tripinfo_t51" vType="DEFAULT_VEHTYPE" vaporized=""/>
    <tripinfo id="t100" depart="100.00" departLane="2/2to1/2_0" departPos="5.10" departSpeed="0.00" departDelay="0.00" arrival="173.00" arrivalLane="2/2to1/2_0" arrivalPos="194.38" arrivalSpeed="3.38" duration="73.00" routeLength="189.28" waitSteps="42" rerouteNo="0" devices="tripinfo_t100" vType="DEFAULT_VEHTYPE" vaporized=""/>
    <tripinfo id="t72" depart="76.00" departLane="0/0to1/0_0" departPos="5.10" departSpeed="0.00" departDelay="4.00" arrival="178.00" arrivalLane="1/0to2/0_0" arrivalPos="202.43" arrivalSpeed="13.71" duration="102.00" routeLength="389.33" waitSteps="52" rerouteNo="0" devices="tripinfo_t72" vType="DEFAULT_VEHTYPE" vaporized=""/>
    <tripinfo id="t167" depart="167.00" departLane="0/0to0/1_0" departPos="5.10" departSpeed="0.00" departDelay="0.00" arrival="185.00" arrivalLane="0/0to0/1_0" arrivalPos="201.38" arrivalSpeed="12.62" duration="18.00" routeLength="196.28" waitSteps="0" rerouteNo="0" devices="tripinfo_t167" vType="DEFAULT_VEHTYPE" vaporized=""/>
    <tripinfo id="t6" depart="6.00" departLane="1/1to2/1_0" departPos="5.10" departSpeed="0.00" departDelay="0.00" arrival="189.00" arrivalLane="1/2to1/1_0" arrivalPos="200.20" arrivalSpeed="10.01" duration="183.00" routeLength="769.60" waitSteps="73" rerouteNo="0" devices="tripinfo_t6" vType="DEFAULT_VEHTYPE" vaporized=""/>
    <tripinfo id="t122" depart="122.00" departLane="1/0to0/0_0" departPos="5.10" departSpeed="0.00" departDelay="0.00" arrival="193.00" arrivalLane="0/2to1/2_0" arrivalPos="202.51" arrivalSpeed="13.15" duration="71.00" routeLength="773.41" waitSteps="0" rerouteNo="0" devices="tripinfo_t122" vType="DEFAULT_VEHTYPE" vaporized=""/>
    <tripinfo id="t46" depart="51.00" departLane="1/1to0/1_0" departPos="5.10" departSpeed="0.00" departDelay="5.00" arrival="195.00" arrivalLane="2/0to2/1_0" arrivalPos="191.95" arrivalSpeed="13.88" duration="144.00" routeLength="953.35" waitSteps="47" rerouteNo="0" devices="tripinfo_t46" vType="DEFAULT_VEHTYPE" vaporized=""/>
    <tripinfo id="t157" depart="163.00" departLane="0/0to0/1_0" departPos="5.10" departSpeed="0.00" departDelay="6.00" arrival="197.00" arrivalLane="0/1to0/2_0" arrivalPos="200.35" arrivalSpeed="12.69" duration="34.00" routeLength="387.25" waitSteps="0" rerouteNo="0" devices="tripinfo_t157" vType="DEFAULT_VEHTYPE" vaporized=""/>
    <tripinfo id="t128" depart="130.00" departLane="1/2to0/2_0" departPos="5.10" departSpeed="0.00" departDelay="2.00" arrival="200.00" arrivalLane="0/2to0/1_0" arrivalPos="194.72" arrivalSpeed="5.07" duration="70.00" routeLength="381.62" waitSteps="7" rerouteNo="0" devices="tripinfo_t128" vType="DEFAULT_VEHTYPE" vaporized=""/>
    <tripinfo id="t121" depart="121.00" departLane="0/2to1/2_0" departPos="5.10" departSpeed="0.00" departDelay="0.00" arrival="202.00" arrivalLane="1/2to1/1_0" arrivalPos="190.66" arrivalSpeed="12.21" duration="81.00" routeLength="377.56" waitSteps="36" rerouteNo="0" devices="tripinfo_t121" vType="DEFAULT_VEHTYPE" vaporized=""/>
    <tripinfo id="t63" depart="63.00" departLane="0/0to0/1_0" departPos="5.10" departSpeed="0.00" departDelay="0.00" arrival="209.00" arrivalLane="1/1to2/1_0" arrivalPos="195.74" arrivalSpeed="6.71" duration="146.00" routeLength="573.14" waitSteps="73" rerouteNo="0" devices="tripinfo_t63" vType="DEFAULT_VEHTYPE" vaporized=""/>
    <tripinfo id="t39" depart="39.00" departLane="1/0to0/0_0" departPos="5.10" departSpeed="0.00" departDelay="0.00" arrival="209.00" arrivalLane="1/1to1/0_0" arrivalPos="194.48" arrivalSpeed="5.81" duration="170.00" routeLength="763.88" waitSteps="83" rerouteNo="0" devices="tripinfo_t39" vType="DEFAULT_VEHTYPE" vaporized=""/>
    <tripinfo id="t92" depart="96.00" departLane="2/1to1/1_0" departPos="5.10" departSpeed="0.00" departDelay="4.00" arrival="209.00" arrivalLane="1/1to1/2_0" arrivalPos="195.45" arrivalSpeed="6.59" duration="113.00" routeLength="380.85" waitSteps="58" rerouteNo="0" devices="tripinfo_t92" vType="DEFAULT_VEHTYPE" vaporized=""/>
    <tripinfo id="t114" depart="122.00" departLane="2/1to1/1_0" departPos="5.10" departSpeed="0.00" departDelay="8.00" arrival="211.00" arrivalLane="1/1to1/0_0" arrivalPos="190.85" arrivalSpeed="6.87" duration="89.00" routeLength="376.25" waitSteps="30" rerouteNo="0" devices="tripinfo_t114" vType="DEFAULT_VEHTYPE" vaporized=""/>
    <tripinfo id="t93" depart="93.00" departLane="2/2to2/1_0" departPos="5.10" departSpeed="0.00" departDelay="0.00" arrival="214.00" arrivalLane="1/1to1/2_0" arrivalPos="194.76" arrivalSpeed="8.97" duration="121.00" routeLength="572.16" waitSteps="48" rerouteNo="0" devices="tripinfo_t93" vType="DEFAULT_VEHTYPE" vaporized=""/>
    <tripinfo id="t194" depart="196.00" departLane="2/1to2/0_0" departPos="5.10" departSpeed="0.00" departDelay="2.00" arrival="214.00" arrivalLane="2/1to2/0_0" arrivalPos="198.42" arrivalSpeed="12.96" duration="18.00" routeLength="193.32" waitSteps="0" rerouteNo="0" devices="tripinfo_t194" vType="DEFAULT_VEHTYPE" vaporized=""/>
    <tripinfo id="t77" depart="77.00" departLane="2/2to2/1_0" departPos="5.10" departSpeed="0.00" departDelay="0.00" arrival="215.00" arrivalLane="1/1to0/1_0" arrivalPos="197.90" arrivalSpeed="10.46" duration="138.00" routeLength="575.30" waitSteps="64" rerouteNo="0" devices="tripinfo_t77" vType="DEFAULT_VEHTYPE" vaporized=""/>
    <tripinfo id="t186" depart="189.00" departLane="1/1to2/1_0" departPos="5.10" departSpeed="0.00" departDelay="3.00" arrival="218.00" arrivalLane="1/1to2/1_0" arrivalPos="199.46" arrivalSpeed="12.92" duration="29.00" routeLength="194.36" waitSteps="1" rerouteNo="0" devices="tripinfo_t186" vType="DEFAULT_VEHTYPE" vaporized=""/>
    <tripinfo id="t168" depart="168.00" departLane="1/1to0/1_0" departPos="5.10" departSpeed="0.00" departDelay="0.00" arrival="219.00" arrivalLane="1/1to0/1_0" arrivalPos="192.52" arrivalSpeed="11.02" duration="51.00" routeLength="187.42" waitSteps="23" rerouteNo="0" devices="tripinfo_t168" vType="DEFAULT_VEHTYPE" vaporized=""/>
    <tripinfo id="t201" depart="202.00" departLane="1/1to2/1_0" departPos="5.10" departSpeed="0.00" departDelay="1.00" arrival="220.00" arrivalLane="1/1to2/1_0" arrivalPos="199.68" arrivalSpeed="13.74" duration="18.00" routeLength="194.58" waitSteps="0" rerouteNo="0" devices="tripinfo_t201" vType="DEFAULT_VEHTYPE" vaporized=""/>
    <tripinfo id="t64" depart="65.00" departLane="0/1to1/1_0" departPos="5.10" departSpeed="0.00" departDelay="1.00" arrival="222.00" arrivalLane="1/2to0/2_0" arrivalPos="192.37" arrivalSpeed="12.74" duration="157.00" routeLength="568.27" waitSteps="91" rerouteNo="0" devices="tripinfo_t64" vType="DEFAULT_VEHTYPE" vaporized=""/>
    <tripinfo id="t74" depart="74.00" departLane="0/0to0/1_0" departPos="5.10" departSpeed="0.00" departDelay="0.00" arrival="229.00" arrivalLane="0/1to1/1_0" arrivalPos="195.02" arrivalSpeed="6.74" duration="155.00" routeLength="381.92" waitSteps="89" rerouteNo="0" devices="tripinfo_t74" vType="DEFAULT_VEHTYPE" vaporized=""/>
    <tripinfo id="t31" depart="33.00" departLane="1/0to1/1_0" departPos="5.10" departSpeed="0.00" departDelay="2.00" arrival="229.00" arrivalLane="2/1to2/2_0" arrivalPos="194.98" arrivalSpeed="12.94" duration="196.00" routeLength="570.88" waitSteps="120" rerouteNo="0" devices="tripinfo_t31" vType="DEFAULT_VEHTYPE" vaporized=""/>
    <tripinfo id="t9" depart="9.00" departLane="0/1to0/0_0" departPos="5.10" departSpeed="0.00" departDelay="0.00" arrival="230.00" arrivalLane="1/1to0/1_0" arrivalPos="194.66" arrivalSpeed="13.73" duration="221.00" routeLength="764.06" waitSteps="119" rerouteNo="0" devices="tripinfo_t9" vType="DEFAULT_VEHTYPE" vaporized=""/>
    <tripinfo id="t73" depart="73.00" departLane="1/0to2/0_0" departPos="5.10" departSpeed="0.00" departDelay="0.00" arrival="231.00" arrivalLane="1/2to0/2_0" arrivalPos="194.24" arrivalSpeed="13.85" duration="158.00" routeLength="954.14" waitSteps="47" rerouteNo="0" devices="tripinfo_t73" vType="DEFAULT_VEHTYPE" vaporized=""/>
    <tripinfo id="t103" depart="105.00" departLane="2/1to1/1_0" departPos="5.10" departSpeed="0.00" departDelay="2.00" arrival="232.00" arrivalLane="0/1to0/0_0" arrivalPos="193.19" arrivalSpeed="13.62" duration="127.00" routeLength="569.09" waitSteps="52" rerouteNo="0" devices="tripinfo_t103" vType="DEFAULT_VEHTYPE" vaporized=""/>
    <tripinfo id="t90" depart="92.00" departLane="2/0to2/1_0" departPos="5.10" departSpeed="0.00" departDelay="2.00" arrival="233.00" arrivalLane="1/2to0/2_0" arrivalPos="192.92" arrivalSpeed="13.74" duration="141.00" routeLength="760.82" waitSteps="44" rerouteNo="0" devices="tripinfo_t90" vType="DEFAULT_VEHTYPE" vaporized=""/>
    <tripinfo id="t212" depart="216.00" departLane="0/2to1/2_0" departPos="5.10" departSpeed="0.00" departDelay="4.00" arrival="234.00" arrivalLane="0/2to1/2_0" arrivalPos="201.73" arrivalSpeed="13.23" duration="18.00" routeLength="196.63" waitSteps="0" rerouteNo="0" devices="tripinfo_t212" vType="DEFAULT_VEHTYPE" vaporized=""/>
    <tripinfo id="t91" depart="112.00" departLane="1/2to1/1_0" departPos="5.10" departSpeed="0.00" departDelay="21.00" arrival="236.00" arrivalLane="1/0to2/0_0" arrivalPos="193.56" arrivalSpeed="13.57" duration="124.00" routeLength="569.46" waitSteps="48" rerouteNo="0" devices="tripinfo_t91" vType="DEFAULT_VEHTYPE" vaporized=""/>
    <tripinfo id="t65" depart="66.00" departLane="0/0to0/1_0" departPos="5.10" departSpeed="0.00" departDelay="1.00" arrival="236.00" arrivalLane="1/2to0/2_0" arrivalPos="205.47" arrivalSpeed="13.68" duration="170.00" routeLength="773.37" waitSteps="72" rerouteNo="0" devices="tripinfo_t65" vType="DEFAULT_VEHTYPE" vaporized=""/>
    <tripinfo id="t110" depart="115.00" departLane="1/2to1/1_0" departPos="5.10" departSpeed="0.00" departDelay="5.00" arrival="238.00" arrivalLane="1/0to2/0_0" arrivalPos="195.52" arrivalSpeed="13.60" duration="123.00" routeLength="571.42" waitSteps="47" rerouteNo="0" devices="tripinfo_t110" vType="DEFAULT_VEHTYPE" vaporized=""/>
    <tripinfo id="t14" depart="14.00" departLane="2/1to2/0_0" departPos="5.10" departSpeed="0.00" departDelay="0.00" arrival="241.00" arrivalLane="1/2to2/2_0" arrivalPos="193.33" arrivalSpeed="13.62" duration="227.00" routeLength="953.23" waitSteps="113" rerouteNo="0" devices="tripinfo_t14" vType="DEFAULT_VEHTYPE" vaporized=""/>
    <tripinfo id="t224" depart="224.00" departLane="2/1to2/2_0" departPos="5.10" departSpeed="0.00" departDelay="0.00" arrival="241.00" arrivalLane="2/1to2/2_0" arrivalPos="192.61" arrivalSpeed="13.26" duration="17.00" routeLength="187.51" waitSteps="0" rerouteNo="0" devices="tripinfo_t224" vType="DEFAULT_VEHTYPE" vaporized=""/>
    <tripinfo id="t24" depart="26.00" departLane="2/1to2/2_0" departPos="5.10" departSpeed="0.00" departDelay="2.00" arrival="241.00" arrivalLane="0/1to0/2_0" arrivalPos="198.99" arrivalSpeed="13.78" duration="215.00" routeLength="958.89" waitSteps="86" rerouteNo="0" devices="tripinfo_t24" vType="DEFAULT_VEHTYPE" vaporized=""/>
    <tripinfo id="t53" depart="53.00" departLane="2/2to1/2_0" departPos="5.10" departSpeed="0.00" departDelay="0.00" arrival="242.00" arrivalLane="0/1to0/0_0" arrivalPos="203.46" arrivalSpeed="13.33" duration="189.00" routeLength="771.36" waitSteps="74" rerouteNo="0" devices="tripinfo_t53" vType="DEFAULT_VEHTYPE" vaporized=""/>
    <tripinfo id="t13" depart="13.00" departLane="1/2to0/2_0" departPos="5.10" departSpeed="0.00" departDelay="0.00" arrival="243.00" arrivalLane="1/1to2/1_0" arrivalPos="200.13" arrivalSpeed="12.65" duration="230.00" routeLength="769.53" waitSteps="122" rerouteNo="0" devices="tripinfo_t13" vType="DEFAULT_VEHTYPE" vaporized=""/>
    <tripinfo id="t20" depart="20.00" departLane="2/2to1/2_0" departPos="5.10" departSpeed="0.00" departDelay="0.00" arrival="244.00" arrivalLane="2/0to1/0_0" arrivalPos="194.97" arrivalSpeed="5.98" duration="224.00" routeLength="954.87" waitSteps="96" rerouteNo="0" devices="tripinfo_t20" vType="DEFAULT_VEHTYPE" vaporized=""/>
    <tripinfo id="t161" depart="161.00" departLane="0/2to0/1_0" departPos="5.10" departSpeed="0.00" departDelay="0.00" arrival="244.00" arrivalLane="0/2to0/1_0" arrivalPos="198.04" arrivalSpeed="6.95" duration="83.00" routeLength="192.94" waitSteps="36" rerouteNo="0" devices="tripinfo_t161" vType="DEFAULT_VEHTYPE" vaporized=""/>
    <tripinfo id="t226" depart="234.00" departLane="1/0to2/0_0" departPos="5.10" departSpeed="0.00" departDelay="8.00" arrival="253.00" arrivalLane="1/0to2/0_0" arrivalPos="193.45" arrivalSpeed="11.06" duration="19.00" routeLength="188.35" waitSteps="1" rerouteNo="0" devices="tripinfo_t226" vType="DEFAULT_VEHTYPE" vaporized=""/>
    <tripinfo id="t218" depart="221.00" departLane="0/1to0/2_0" departPos="5.10" departSpeed="0.00" departDelay="3.00" arrival="253.00" arrivalLane="0/2to1/2_0" arrivalPos="192.28" arrivalSpeed="13.44" duration="32.00" routeLength="379.18" waitSteps="0" rerouteNo="0" devices="tripinfo_t218" vType="DEFAULT_VEHTYPE" vaporized=""/>
    <tripinfo id="t58" depart="58.00" departLane="0/2to1/2_0" departPos="5.10" departSpeed="0.00" departDelay="0.00" arrival="258.00" arrivalLane="1/2to0/2_0" arrivalPos="199.17" arrivalSpeed="13.51" duration="200.00" routeLength="1151.07" waitSteps="51" rerouteNo="0" devices="tripinfo_t58" vType="DEFAULT_VEHTYPE" vaporized=""/>
    <tripinfo id="t102" depart="102.00" departLane="2/1to1/1_0" departPos="5.10" departSpeed="0.00" departDelay="0.00" arrival="258.00" arrivalLane="2/1to2/0_0" arrivalPos="194.09" arrivalSpeed="13.05" duration="156.00" routeLength="953.99" waitSteps="52" rerouteNo="0" devices="tripinfo_t102" vType="DEFAULT_VEHTYPE" vaporized=""/>
    <tripinfo id="t62" depart="62.00" departLane="0/1to1/1_0" departPos="5.10" departSpeed="0.00" departDelay="0.00" arrival="259.00" arrivalLane="2/2to1/2_0" arrivalPos="196.21" arrivalSpeed="7.97" duration="197.00" routeLength="764.11" waitSteps="88" rerouteNo="0" devices="tripinfo_t62" vType="DEFAULT_VEHTYPE" vaporized=""/>
    <tripinfo id="t152" depart="152.00" departLane="2/0to1/0_0" departPos="5.10" departSpeed="0.00" departDelay="0.00" arrival="259.00" arrivalLane="1/0to0/0_0" arrivalPos="205.30" arrivalSpeed="13.72" duration="107.00" routeLength="392.20" waitSteps="53" rerouteNo="0" devices="tripinfo_t152" vType="DEFAULT_VEHTYPE" vaporized=""/>
    <tripinfo id="t54" depart="54.00" departLane="1/0to2/0_0" departPos="5.10" departSpeed="0.00" departDelay="0.00" arrival="268.00" arrivalLane="0/0to0/1_0" arrivalPos="195.72" arrivalSpeed="5.02" duration="214.00" routeLength="1147.62" waitSteps="80" rerouteNo="0" devices="tripinfo_t54" vType="DEFAULT_VEHTYPE" vaporized=""/>
    <tripinfo id="t83" depart="83.00" departLane="1/1to0/1_0" departPos="5.10" departSpeed="0.00" departDelay="0.00" arrival="274.00" arrivalLane="1/2to1/1_0" arrivalPos="193.26" arrivalSpeed="5.88" duration="191.00" routeLength="762.66" waitSteps="88" rerouteNo="0" devices="tripinfo_t83" vType="DEFAULT_VEHTYPE" vaporized=""/>
    <tripinfo id="t35" depart="36.00" departLane="1/0to1/1_0" departPos="5.10" departSpeed="0.00" departDelay="1.00" arrival="275.00" arrivalLane="2/2to1/2_0" arrivalPos="193.47" arrivalSpeed="9.28" duration="239.00" routeLength="761.37" waitSteps="122" rerouteNo="0" devices="tripinfo_t35" vType="DEFAULT_VEHTYPE" vaporized=""/>
    <tripinfo id="t187" depart="189.00" departLane="1/1to1/0_0" departPos="5.10" departSpeed="0.00" departDelay="2.00" arrival="275.00" arrivalLane="2/0to2/1_0" arrivalPos="197.77" arrivalSpeed="6.18" duration="86.00" routeLength="575.17" waitSteps="9" rerouteNo="0" devices="tripinfo_t187" vType="DEFAULT_VEHTYPE" vaporized=""/>
    <tripinfo id="t19" depart="19.00" departLane="1/1to2/1_0" departPos="5.10" departSpeed="0.00" departDelay="0.00" arrival="277.00" arrivalLane="2/0to2/1_0" arrivalPos="197.33" arrivalSpeed="8.61" duration="258.00" routeLength="1339.73" waitSteps="65" rerouteNo="0" devices="tripinfo_t19" vType="DEFAULT_VEHTYPE" vaporized=""/>
    <tripinfo id="t195" depart="195.00" departLane="1/2to1/1_0" departPos="5.10" departSpeed="0.00" departDelay="0.00" arrival="292.00" arrivalLane="1/2to1/1_0" arrivalPos="191.73" arrivalSpeed="12.73" duration="97.00" routeLength="186.63" waitSteps="47" rerouteNo="0" devices="tripinfo_t195" vType="DEFAULT_VEHTYPE" vaporized=""/>
    <tripinfo id="t37" depart="47.00" departLane="1/0to1/1_0" departPos="5.10" departSpeed="0.00" departDelay="10.00" arrival="302.00" arrivalLane="1/1to1/2_0" arrivalPos="195.90" arrivalSpeed="12.91" duration="255.00" routeLength="381.30" waitSteps="168" rerouteNo="0" devices="tripinfo_t37" vType="DEFAULT_VEHTYPE" vaporized=""/>
    <tripinfo id="t61" depart="61.00" departLane="1/0to1/1_0" departPos="5.10" departSpeed="0.00" departDelay="0.00" arrival="302.00" arrivalLane="1/1to0/1_0" arrivalPos="195.87" arrivalSpeed="12.81" duration="241.00" routeLength="381.27" waitSteps="148" rerouteNo="0" devices="tripinfo_t61" vType="DEFAULT_VEHTYPE" vaporized=""/>
    <tripinfo id="t131" depart="131.00" departLane="2/1to1/1_0" departPos="5.10" departSpeed="0.00" departDelay="0.00" arrival="302.00" arrivalLane="1/2to2/2_0" arrivalPos="195.26" arrivalSpeed="13.09" duration="171.00" routeLength="571.16" waitSteps="91" rerouteNo="0" devices="tripinfo_t131" vType="DEFAULT_VEHTYPE" vaporized=""/>
    <tripinfo id="t75" depart="77.00" departLane="0/0to0/1_0" departPos="5.10" departSpeed="0.00" departDelay="2.00" arrival="302.00" arrivalLane="2/1to2/0_0" arrivalPos="193.98" arrivalSpeed="13.61" duration="225.00" routeLength="761.88" waitSteps="118" rerouteNo="0" devices="tripinfo_t75" vType="DEFAULT_VEHTYPE" vaporized=""/>
    <tripinfo id="t158" depart="158.00" departLane="2/1to1/1_0" departPos="5.10" departSpeed="0.00" departDelay="0.00" arrival="304.00" arrivalLane="1/2to0/2_0" arrivalPos="199.84" arrivalSpeed="13.46" duration="146.00" routeLength="575.74" waitSteps="78" rerouteNo="0" devices="tripinfo_t158" vType="DEFAULT_VEHTYPE" vaporized=""/>
    <tripinfo id="t47" depart="47.00" departLane="0/2to0/1_0" departPos="5.10" departSpeed="0.00" departDelay="0.00" arrival="305.00" arrivalLane="1/0to0/0_0" arrivalPos="201.34" arrivalSpeed="12.92" duration="258.00" routeLength="769.24" waitSteps="134" rerouteNo="0" devices="tripinfo_t47" vType="DEFAULT_VEHTYPE" vaporized=""/>
    <tripinfo id="t112" depart="112.00" departLane="1/1to1/2_0" departPos="5.10" departSpeed="0.00" departDelay="0.00" arrival="305.00" arrivalLane="0/1to0/2_0" arrivalPos="204.14" arrivalSpeed="13.31" duration="193.00" routeLength="1154.54" waitSteps="72" rerouteNo="0" devices="tripinfo_t112" vType="DEFAULT_VEHTYPE" vaporized=""/>
    <tripinfo id="t104" depart="107.00" departLane="2/2to1/2_0" departPos="5.10" departSpeed="0.00" departDelay="3.00" arrival="306.00" arrivalLane="1/1to0/1_0" arrivalPos="194.35" arrivalSpeed="12.98" duration="199.00" routeLength="571.75" waitSteps="90" rerouteNo="0" devices="tripinfo_t104" vType="DEFAULT_VEHTYPE" vaporized=""/>
    <tripinfo id="t129" depart="129.00" departLane="1/0to2/0_0" departPos="5.10" departSpeed="0.00" departDelay="0.00" arrival="308.00" arrivalLane="1/2to2/2_0" arrivalPos="193.68" arrivalSpeed="13.37" duration="179.00" routeLength="953.58" waitSteps="62" rerouteNo="0" devices="tripinfo_t129" vType="DEFAULT_VEHTYPE" vaporized=""/>